
     Program PWSCF v.7.2 starts on  2Jun2023 at 13:47:37 

     This program is part of the open-source Quantum ESPRESSO suite
     for quantum simulation of materials; please cite
         "P. Giannozzi et al., J. Phys.:Condens. Matter 21 395502 (2009);
         "P. Giannozzi et al., J. Phys.:Condens. Matter 29 465901 (2017);
         "P. Giannozzi et al., J. Chem. Phys. 152 154105 (2020);
          URL http://www.quantum-espresso.org", 
     in publications or presentations arising from this work. More details at
     http://www.quantum-espresso.org/quote

     Parallel version (MPI & OpenMP), running on       4 processor cores
     Number of MPI processes:                 1
     Threads/MPI process:                     4

     MPI processes distributed on     1 nodes
     0 MiB available memory on the printing compute node when the environment starts

     Waiting for input...
     Reading input from standard input

     Current dimensions of program PWSCF are:
     Max number of different atomic species (ntypx) = 10
     Max number of k-points (npk) =  40000
     Max angular momentum in pseudopotentials (lmaxx) =  4
     Found identity + ( -0.5000 -0.5000  0.0000) symmetry
     This is a supercell, fractional translations are disabled

     Subspace diagonalization in iterative solution of the eigenvalue problem:
     a serial algorithm will be used


     G-vector sticks info
     --------------------
     sticks:   dense  smooth     PW     G-vecs:    dense   smooth      PW
     Sum         497     497    145                 8385     8385    1365

     Using Slab Decomposition



     bravais-lattice index     =            8
     lattice parameter (alat)  =      10.2600  a.u.
     unit-cell volume          =    1080.0456 (a.u.)^3
     number of atoms/cell      =            8
     number of atomic types    =            1
     number of electrons       =        32.00
     number of Kohn-Sham states=           32
     kinetic-energy cutoff     =      15.0000  Ry
     charge density cutoff     =      60.0000  Ry
     scf convergence threshold =      1.0E-10
     mixing beta               =       0.5000
     number of iterations used =            8  plain     mixing
     Exchange-correlation= PBE
                           (   1   4   3   4   0   0   0)

     celldm(1)=  10.260000  celldm(2)=   1.000000  celldm(3)=   1.000000
     celldm(4)=   0.000000  celldm(5)=   0.000000  celldm(6)=   0.000000

     crystal axes: (cart. coord. in units of alat)
               a(1) = (   1.000000   0.000000   0.000000 )  
               a(2) = (   0.000000   1.000000   0.000000 )  
               a(3) = (   0.000000   0.000000   1.000000 )  

     reciprocal axes: (cart. coord. in units 2 pi/alat)
               b(1) = (  1.000000  0.000000  0.000000 )  
               b(2) = (  0.000000  1.000000  0.000000 )  
               b(3) = (  0.000000  0.000000  1.000000 )  


     PseudoPot. # 1 for Si read from file:
     ../../pseudos/Si.pbe-n-rrkjus_psl.1.0.0.UPF
     MD5 check sum: 0b0bb1205258b0d07b9f9672cf965d36
     Pseudo is Ultrasoft + core correction, Zval =  4.0
     Generated using "atomic" code by A. Dal Corso  v.5.1
     Using radial grid of 1141 points,  6 beta functions with: 
                l(1) =   0
                l(2) =   0
                l(3) =   1
                l(4) =   1
                l(5) =   2
                l(6) =   2
     Q(r) pseudized with 0 coefficients 


     atomic species   valence    mass     pseudopotential
        Si             4.00    14.00000     Si( 1.00)

     No symmetry found



   Cartesian axes

     site n.     atom                  positions (alat units)
         1           Si  tau(   1) = (   0.0000000   0.0000000   0.0000000  )
         2           Si  tau(   2) = (   0.5000000   0.5000000   0.0000000  )
         3           Si  tau(   3) = (   0.0000000   0.5000000   0.5000000  )
         4           Si  tau(   4) = (   0.5000000   0.0000000   0.5000000  )
         5           Si  tau(   5) = (   0.2500000   0.2500000   0.2500000  )
         6           Si  tau(   6) = (   0.7500000   0.7500000   0.2500000  )
         7           Si  tau(   7) = (   0.7500000   0.2500000   0.7500000  )
         8           Si  tau(   8) = (   0.2500000   0.7500000   0.7500000  )

     number of k points=    32
                       cart. coord. in units 2pi/alat
        k(    1) = (   0.1250000   0.1250000   0.1250000), wk =   0.0625000
        k(    2) = (   0.1250000   0.1250000   0.3750000), wk =   0.0625000
        k(    3) = (   0.1250000   0.1250000  -0.3750000), wk =   0.0625000
        k(    4) = (   0.1250000   0.1250000  -0.1250000), wk =   0.0625000
        k(    5) = (   0.1250000   0.3750000   0.1250000), wk =   0.0625000
        k(    6) = (   0.1250000   0.3750000   0.3750000), wk =   0.0625000
        k(    7) = (   0.1250000   0.3750000  -0.3750000), wk =   0.0625000
        k(    8) = (   0.1250000   0.3750000  -0.1250000), wk =   0.0625000
        k(    9) = (   0.1250000  -0.3750000   0.1250000), wk =   0.0625000
        k(   10) = (   0.1250000  -0.3750000   0.3750000), wk =   0.0625000
        k(   11) = (   0.1250000  -0.3750000  -0.3750000), wk =   0.0625000
        k(   12) = (   0.1250000  -0.3750000  -0.1250000), wk =   0.0625000
        k(   13) = (   0.1250000  -0.1250000   0.1250000), wk =   0.0625000
        k(   14) = (   0.1250000  -0.1250000   0.3750000), wk =   0.0625000
        k(   15) = (   0.1250000  -0.1250000  -0.3750000), wk =   0.0625000
        k(   16) = (   0.1250000  -0.1250000  -0.1250000), wk =   0.0625000
        k(   17) = (   0.3750000   0.1250000   0.1250000), wk =   0.0625000
        k(   18) = (   0.3750000   0.1250000   0.3750000), wk =   0.0625000
        k(   19) = (   0.3750000   0.1250000  -0.3750000), wk =   0.0625000
        k(   20) = (   0.3750000   0.1250000  -0.1250000), wk =   0.0625000
        k(   21) = (   0.3750000   0.3750000   0.1250000), wk =   0.0625000
        k(   22) = (   0.3750000   0.3750000   0.3750000), wk =   0.0625000
        k(   23) = (   0.3750000   0.3750000  -0.3750000), wk =   0.0625000
        k(   24) = (   0.3750000   0.3750000  -0.1250000), wk =   0.0625000
        k(   25) = (   0.3750000  -0.3750000   0.1250000), wk =   0.0625000
        k(   26) = (   0.3750000  -0.3750000   0.3750000), wk =   0.0625000
        k(   27) = (   0.3750000  -0.3750000  -0.3750000), wk =   0.0625000
        k(   28) = (   0.3750000  -0.3750000  -0.1250000), wk =   0.0625000
        k(   29) = (   0.3750000  -0.1250000   0.1250000), wk =   0.0625000
        k(   30) = (   0.3750000  -0.1250000   0.3750000), wk =   0.0625000
        k(   31) = (   0.3750000  -0.1250000  -0.3750000), wk =   0.0625000
        k(   32) = (   0.3750000  -0.1250000  -0.1250000), wk =   0.0625000

     Dense  grid:     8385 G-vectors     FFT dimensions: (  25,  25,  25)

     Estimated max dynamical RAM per process >      51.30 MB

     Check: negative core charge=   -0.000075

     Initial potential from superposition of free atoms

     starting charge      31.9955, renormalised to      32.0000
     Starting wfcs are random

     total cpu time spent up to now is        0.9 secs

     Self-consistent Calculation

     iteration #  1     ecut=    15.00 Ry     beta= 0.50
     CG style diagonalization
     ethr =  1.00E-02,  avg # of iterations =  9.3

     Threshold (ethr) on eigenvalues was too large:
     Diagonalizing with lowered threshold

     CG style diagonalization
     c_bands:  2 eigenvalues not converged
     c_bands:  1 eigenvalues not converged
     c_bands:  1 eigenvalues not converged
     c_bands:  1 eigenvalues not converged
     c_bands:  2 eigenvalues not converged
     c_bands:  1 eigenvalues not converged
     ethr =  6.75E-04,  avg # of iterations =  6.0

     total cpu time spent up to now is       19.7 secs

     total energy              =     -91.33652436 Ry
     estimated scf accuracy    <       0.22340159 Ry

     iteration #  2     ecut=    15.00 Ry     beta= 0.50
     CG style diagonalization
     ethr =  6.98E-04,  avg # of iterations =  3.0

     total cpu time spent up to now is       22.9 secs

     total energy              =     -91.33963958 Ry
     estimated scf accuracy    <       0.04233752 Ry

     iteration #  3     ecut=    15.00 Ry     beta= 0.50
     CG style diagonalization
     ethr =  1.32E-04,  avg # of iterations =  3.8

     total cpu time spent up to now is       27.2 secs

     total energy              =     -91.34460217 Ry
     estimated scf accuracy    <       0.00105751 Ry

     iteration #  4     ecut=    15.00 Ry     beta= 0.50
     CG style diagonalization
     c_bands:  2 eigenvalues not converged
     c_bands:  1 eigenvalues not converged
     c_bands:  1 eigenvalues not converged
     c_bands:  2 eigenvalues not converged
     c_bands:  1 eigenvalues not converged
     c_bands:  3 eigenvalues not converged
     c_bands:  1 eigenvalues not converged
     c_bands:  1 eigenvalues not converged
     c_bands:  2 eigenvalues not converged
     c_bands:  1 eigenvalues not converged
     ethr =  3.30E-06,  avg # of iterations =  6.6

     total cpu time spent up to now is       34.9 secs

     total energy              =     -91.34530720 Ry
     estimated scf accuracy    <       0.00028182 Ry

     iteration #  5     ecut=    15.00 Ry     beta= 0.50
     CG style diagonalization
     c_bands:  1 eigenvalues not converged
     c_bands:  1 eigenvalues not converged
     c_bands:  1 eigenvalues not converged
     c_bands:  2 eigenvalues not converged
     c_bands:  1 eigenvalues not converged
     c_bands:  1 eigenvalues not converged
     ethr =  8.81E-07,  avg # of iterations =  3.2

     total cpu time spent up to now is       38.4 secs

     total energy              =     -91.34529311 Ry
     estimated scf accuracy    <       0.00006677 Ry

     iteration #  6     ecut=    15.00 Ry     beta= 0.50
     CG style diagonalization
     c_bands:  1 eigenvalues not converged
     c_bands:  1 eigenvalues not converged
     c_bands:  1 eigenvalues not converged
     ethr =  2.09E-07,  avg # of iterations =  3.7

     total cpu time spent up to now is       42.5 secs

     total energy              =     -91.34530601 Ry
     estimated scf accuracy    <       0.00001325 Ry

     iteration #  7     ecut=    15.00 Ry     beta= 0.50
     CG style diagonalization
     ethr =  4.14E-08,  avg # of iterations =  3.4

     total cpu time spent up to now is       46.1 secs

     total energy              =     -91.34530867 Ry
     estimated scf accuracy    <       0.00000046 Ry

     iteration #  8     ecut=    15.00 Ry     beta= 0.50
     CG style diagonalization
     ethr =  1.43E-09,  avg # of iterations =  3.6

     total cpu time spent up to now is       50.0 secs

     total energy              =     -91.34530882 Ry
     estimated scf accuracy    <       0.00000005 Ry

     iteration #  9     ecut=    15.00 Ry     beta= 0.50
     CG style diagonalization
     ethr =  1.50E-10,  avg # of iterations =  3.2

     total cpu time spent up to now is       53.4 secs

     total energy              =     -91.34530882 Ry
     estimated scf accuracy    <          8.9E-09 Ry

     iteration # 10     ecut=    15.00 Ry     beta= 0.50
     CG style diagonalization
     ethr =  2.78E-11,  avg # of iterations =  3.4

     total cpu time spent up to now is       57.1 secs

     total energy              =     -91.34530883 Ry
     estimated scf accuracy    <          1.1E-09 Ry

     iteration # 11     ecut=    15.00 Ry     beta= 0.50
     CG style diagonalization
     ethr =  3.54E-12,  avg # of iterations =  3.3

     total cpu time spent up to now is       60.8 secs

     End of self-consistent calculation

          k = 0.1250 0.1250 0.1250 (  1060 PWs)   bands (ev):

    -5.5394  -2.4521  -2.4509  -2.4509  -0.6113  -0.6106  -0.6106   2.7818
     2.7835   2.7835   3.5351   3.5351   3.5372   4.6320   5.9468   5.9468
     7.1477   7.1477   7.1485   8.2249   8.2249   8.2251   8.7457   9.2354
     9.2354  10.9475  13.5828  13.5830  14.5690  14.5713  14.5737  14.6444

          k = 0.1250 0.1250 0.3750 (  1065 PWs)   bands (ev):

    -5.0022  -3.9517  -2.2748  -2.2740  -0.7131  -0.7127   1.2812   2.1579
     2.1588   3.0002   3.2598   3.2610   3.5516   4.0136   4.9086   4.9870
     7.6020   8.3974   8.6484   8.6484   9.1616   9.9548  10.5597  10.5600
    10.7268  11.0309  11.5450  11.5453  12.2711  12.5552  13.7202  13.7376

          k = 0.1250 0.1250-0.3750 (  1065 PWs)   bands (ev):

    -5.0022  -3.9517  -2.2748  -2.2740  -0.7131  -0.7127   1.2812   2.1579
     2.1588   3.0002   3.2598   3.2610   3.5516   4.0136   4.9086   4.9870
     7.6020   8.3974   8.6484   8.6484   9.1616   9.9548  10.5597  10.5601
    10.7268  11.0309  11.5450  11.5453  12.2711  12.5554  13.7209  13.7630

          k = 0.1250 0.1250-0.1250 (  1060 PWs)   bands (ev):

    -5.5394  -2.4521  -2.4509  -2.4509  -0.6113  -0.6106  -0.6106   2.7818
     2.7835   2.7835   3.5351   3.5351   3.5372   4.6320   5.9468   5.9468
     7.1477   7.1477   7.1485   8.2249   8.2249   8.2251   8.7457   9.2354
     9.2354  10.9475  13.5829  13.5830  14.5688  14.5729  14.5771  14.6450

          k = 0.1250 0.3750 0.1250 (  1065 PWs)   bands (ev):

    -5.0022  -3.9517  -2.2748  -2.2740  -0.7131  -0.7127   1.2812   2.1579
     2.1588   3.0002   3.2598   3.2610   3.5516   4.0136   4.9086   4.9870
     7.6020   8.3974   8.6484   8.6484   9.1616   9.9548  10.5597  10.5600
    10.7269  11.0309  11.5450  11.5453  12.2710  12.5553  13.7206  13.7275

          k = 0.1250 0.3750 0.3750 (  1058 PWs)   bands (ev):

    -4.4933  -3.5257  -3.5249  -2.8200  -0.4226   0.3780   0.3783   1.5959
     2.2265   2.8997   2.9008   3.9139   4.2945   4.2949   4.3367   5.4555
     8.1000   8.9696   9.1371   9.1372   9.8151   9.8176   9.9331  10.1234
    11.2931  11.2932  11.7475  11.7601  12.2226  12.2232  12.5614  12.8068

          k = 0.1250 0.3750-0.3750 (  1058 PWs)   bands (ev):

    -4.4933  -3.5257  -3.5249  -2.8200  -0.4226   0.3780   0.3783   1.5959
     2.2265   2.8997   2.9008   3.9139   4.2945   4.2949   4.3367   5.4555
     8.1000   8.9696   9.1371   9.1371   9.8151   9.8177   9.9331  10.1234
    11.2930  11.2933  11.7475  11.7601  12.2226  12.2237  12.5610  12.8069

          k = 0.1250 0.3750-0.1250 (  1065 PWs)   bands (ev):

    -5.0022  -3.9517  -2.2748  -2.2740  -0.7131  -0.7127   1.2812   2.1579
     2.1588   3.0002   3.2598   3.2610   3.5516   4.0136   4.9086   4.9870
     7.6020   8.3974   8.6484   8.6484   9.1616   9.9548  10.5597  10.5600
    10.7268  11.0309  11.5450  11.5453  12.2711  12.5552  13.7209  13.7287

          k = 0.1250-0.3750 0.1250 (  1065 PWs)   bands (ev):

    -5.0022  -3.9517  -2.2748  -2.2740  -0.7131  -0.7127   1.2812   2.1579
     2.1588   3.0002   3.2598   3.2610   3.5516   4.0136   4.9086   4.9870
     7.6020   8.3974   8.6484   8.6484   9.1616   9.9548  10.5597  10.5600
    10.7268  11.0309  11.5450  11.5454  12.2711  12.5553  13.7204  13.7398

          k = 0.1250-0.3750 0.3750 (  1058 PWs)   bands (ev):

    -4.4933  -3.5257  -3.5249  -2.8200  -0.4226   0.3780   0.3783   1.5959
     2.2265   2.8997   2.9008   3.9139   4.2945   4.2949   4.3367   5.4555
     8.1000   8.9696   9.1371   9.1371   9.8151   9.8177   9.9331  10.1234
    11.2930  11.2932  11.7476  11.7600  12.2227  12.2233  12.5611  12.8065

          k = 0.1250-0.3750-0.3750 (  1058 PWs)   bands (ev):

    -4.4933  -3.5257  -3.5249  -2.8200  -0.4226   0.3780   0.3783   1.5959
     2.2265   2.8997   2.9008   3.9139   4.2945   4.2949   4.3367   5.4555
     8.1000   8.9696   9.1371   9.1372   9.8151   9.8177   9.9331  10.1234
    11.2931  11.2932  11.7476  11.7601  12.2225  12.2235  12.5606  12.8066

          k = 0.1250-0.3750-0.1250 (  1065 PWs)   bands (ev):

    -5.0022  -3.9517  -2.2748  -2.2740  -0.7131  -0.7127   1.2812   2.1579
     2.1588   3.0002   3.2598   3.2610   3.5516   4.0136   4.9086   4.9870
     7.6020   8.3974   8.6484   8.6484   9.1616   9.9548  10.5597  10.5600
    10.7269  11.0309  11.5450  11.5453  12.2711  12.5553  13.7207  13.7530

          k = 0.1250-0.1250 0.1250 (  1060 PWs)   bands (ev):

    -5.5394  -2.4521  -2.4509  -2.4509  -0.6113  -0.6106  -0.6106   2.7818
     2.7835   2.7835   3.5351   3.5351   3.5372   4.6320   5.9468   5.9468
     7.1477   7.1477   7.1485   8.2249   8.2249   8.2251   8.7457   9.2354
     9.2354  10.9475  13.5828  13.5833  14.5679  14.5727  14.5737  14.6457

          k = 0.1250-0.1250 0.3750 (  1065 PWs)   bands (ev):

    -5.0022  -3.9517  -2.2748  -2.2740  -0.7131  -0.7127   1.2812   2.1579
     2.1588   3.0002   3.2598   3.2610   3.5516   4.0136   4.9086   4.9870
     7.6020   8.3974   8.6484   8.6484   9.1616   9.9548  10.5597  10.5600
    10.7268  11.0309  11.5450  11.5453  12.2710  12.5552  13.7205  13.7219

          k = 0.1250-0.1250-0.3750 (  1065 PWs)   bands (ev):

    -5.0022  -3.9517  -2.2748  -2.2740  -0.7131  -0.7127   1.2812   2.1579
     2.1588   3.0002   3.2598   3.2610   3.5516   4.0136   4.9086   4.9870
     7.6020   8.3974   8.6484   8.6484   9.1616   9.9548  10.5597  10.5600
    10.7268  11.0309  11.5451  11.5453  12.2711  12.5554  13.7208  13.7221

          k = 0.1250-0.1250-0.1250 (  1060 PWs)   bands (ev):

    -5.5394  -2.4521  -2.4509  -2.4509  -0.6113  -0.6106  -0.6106   2.7818
     2.7835   2.7835   3.5351   3.5351   3.5372   4.6320   5.9468   5.9468
     7.1477   7.1477   7.1485   8.2249   8.2249   8.2251   8.7457   9.2354
     9.2354  10.9475  13.5828  13.5831  14.5680  14.5766  14.6000  14.6456

          k = 0.3750 0.1250 0.1250 (  1065 PWs)   bands (ev):

    -5.0022  -3.9517  -2.2748  -2.2740  -0.7131  -0.7127   1.2812   2.1579
     2.1588   3.0002   3.2598   3.2610   3.5516   4.0136   4.9086   4.9870
     7.6020   8.3974   8.6484   8.6484   9.1616   9.9548  10.5597  10.5600
    10.7268  11.0309  11.5450  11.5452  12.2711  12.5553  13.7207  13.7242

          k = 0.3750 0.1250 0.3750 (  1058 PWs)   bands (ev):

    -4.4933  -3.5257  -3.5249  -2.8200  -0.4226   0.3780   0.3783   1.5959
     2.2265   2.8997   2.9008   3.9139   4.2945   4.2949   4.3367   5.4555
     8.1000   8.9696   9.1371   9.1371   9.8151   9.8176   9.9331  10.1234
    11.2930  11.2933  11.7476  11.7601  12.2225  12.2236  12.5612  12.8066

          k = 0.3750 0.1250-0.3750 (  1058 PWs)   bands (ev):

    -4.4933  -3.5257  -3.5249  -2.8200  -0.4226   0.3780   0.3783   1.5959
     2.2265   2.8997   2.9008   3.9139   4.2945   4.2949   4.3367   5.4555
     8.1000   8.9696   9.1371   9.1371   9.8151   9.8177   9.9331  10.1234
    11.2931  11.2933  11.7476  11.7602  12.2225  12.2236  12.5607  12.8069

          k = 0.3750 0.1250-0.1250 (  1065 PWs)   bands (ev):

    -5.0022  -3.9517  -2.2748  -2.2740  -0.7131  -0.7127   1.2812   2.1579
     2.1588   3.0002   3.2598   3.2610   3.5516   4.0136   4.9086   4.9870
     7.6020   8.3974   8.6484   8.6484   9.1616   9.9548  10.5597  10.5600
    10.7268  11.0309  11.5450  11.5453  12.2712  12.5553  13.7206  13.7257

          k = 0.3750 0.3750 0.1250 (  1058 PWs)   bands (ev):

    -4.4933  -3.5257  -3.5249  -2.8200  -0.4226   0.3780   0.3783   1.5959
     2.2265   2.8997   2.9008   3.9139   4.2945   4.2949   4.3367   5.4555
     8.1000   8.9696   9.1371   9.1371   9.8151   9.8177   9.9332  10.1234
    11.2930  11.2933  11.7476  11.7601  12.2228  12.2238  12.5610  12.8067

          k = 0.3750 0.3750 0.3750 (  1046 PWs)   bands (ev):

    -4.0496  -3.3249  -3.3235  -3.3235  -0.5316  -0.5312  -0.5312   0.2710
     3.9443   3.9451   3.9451   4.6612   4.6612   4.6632   5.1390   5.1390
     7.9152   8.4491   8.4491   8.4496   9.7123   9.7123   9.7795   9.7810
     9.7810  10.3768  10.3768  10.3802  13.6551  13.6561  13.6562  14.1316

          k = 0.3750 0.3750-0.3750 (  1046 PWs)   bands (ev):

    -4.0496  -3.3249  -3.3235  -3.3235  -0.5316  -0.5312  -0.5312   0.2710
     3.9443   3.9451   3.9451   4.6612   4.6612   4.6632   5.1390   5.1390
     7.9152   8.4491   8.4491   8.4496   9.7123   9.7123   9.7795   9.7810
     9.7810  10.3768  10.3768  10.3802  13.6551  13.6561  13.6562  14.1319

          k = 0.3750 0.3750-0.1250 (  1058 PWs)   bands (ev):

    -4.4933  -3.5257  -3.5249  -2.8200  -0.4226   0.3780   0.3783   1.5959
     2.2265   2.8997   2.9008   3.9139   4.2945   4.2949   4.3367   5.4555
     8.1000   8.9696   9.1371   9.1371   9.8151   9.8176   9.9331  10.1234
    11.2931  11.2932  11.7476  11.7601  12.2225  12.2232  12.5609  12.8067

          k = 0.3750-0.3750 0.1250 (  1058 PWs)   bands (ev):

    -4.4933  -3.5257  -3.5249  -2.8200  -0.4226   0.3780   0.3783   1.5959
     2.2265   2.8997   2.9008   3.9139   4.2945   4.2949   4.3367   5.4555
     8.1000   8.9696   9.1371   9.1371   9.8151   9.8177   9.9331  10.1234
    11.2931  11.2932  11.7476  11.7602  12.2226  12.2233  12.5609  12.8071

          k = 0.3750-0.3750 0.3750 (  1046 PWs)   bands (ev):

    -4.0496  -3.3249  -3.3235  -3.3235  -0.5316  -0.5312  -0.5312   0.2710
     3.9443   3.9451   3.9451   4.6612   4.6612   4.6632   5.1390   5.1390
     7.9152   8.4491   8.4491   8.4496   9.7123   9.7123   9.7795   9.7810
     9.7810  10.3768  10.3768  10.3802  13.6552  13.6560  13.6562  14.1320

          k = 0.3750-0.3750-0.3750 (  1046 PWs)   bands (ev):

    -4.0496  -3.3249  -3.3235  -3.3235  -0.5316  -0.5312  -0.5312   0.2710
     3.9443   3.9451   3.9451   4.6612   4.6612   4.6632   5.1390   5.1390
     7.9152   8.4491   8.4491   8.4496   9.7123   9.7123   9.7795   9.7810
     9.7810  10.3768  10.3768  10.3802  13.6551  13.6560  13.6563  14.1319

          k = 0.3750-0.3750-0.1250 (  1058 PWs)   bands (ev):

    -4.4933  -3.5257  -3.5249  -2.8200  -0.4226   0.3780   0.3783   1.5959
     2.2265   2.8997   2.9008   3.9139   4.2945   4.2949   4.3367   5.4555
     8.1000   8.9696   9.1371   9.1371   9.8151   9.8176   9.9331  10.1234
    11.2930  11.2933  11.7476  11.7600  12.2227  12.2232  12.5611  12.8071

          k = 0.3750-0.1250 0.1250 (  1065 PWs)   bands (ev):

    -5.0022  -3.9517  -2.2748  -2.2740  -0.7131  -0.7127   1.2812   2.1579
     2.1588   3.0002   3.2598   3.2610   3.5516   4.0136   4.9086   4.9870
     7.6020   8.3974   8.6484   8.6484   9.1616   9.9548  10.5597  10.5601
    10.7268  11.0309  11.5450  11.5453  12.2712  12.5553  13.7210  13.7329

          k = 0.3750-0.1250 0.3750 (  1058 PWs)   bands (ev):

    -4.4933  -3.5257  -3.5249  -2.8200  -0.4226   0.3780   0.3783   1.5959
     2.2265   2.8997   2.9008   3.9139   4.2945   4.2949   4.3367   5.4555
     8.1000   8.9696   9.1371   9.1371   9.8151   9.8177   9.9331  10.1234
    11.2931  11.2932  11.7476  11.7602  12.2225  12.2232  12.5608  12.8070

          k = 0.3750-0.1250-0.3750 (  1058 PWs)   bands (ev):

    -4.4933  -3.5257  -3.5249  -2.8200  -0.4226   0.3780   0.3783   1.5959
     2.2265   2.8997   2.9008   3.9139   4.2945   4.2949   4.3367   5.4555
     8.1000   8.9696   9.1371   9.1371   9.8151   9.8176   9.9331  10.1234
    11.2930  11.2934  11.7476  11.7601  12.2225  12.2238  12.5608  12.8065

          k = 0.3750-0.1250-0.1250 (  1065 PWs)   bands (ev):

    -5.0022  -3.9517  -2.2748  -2.2740  -0.7131  -0.7127   1.2812   2.1579
     2.1588   3.0002   3.2598   3.2610   3.5516   4.0136   4.9086   4.9870
     7.6020   8.3974   8.6484   8.6484   9.1616   9.9548  10.5597  10.5600
    10.7268  11.0309  11.5450  11.5453  12.2710  12.5552  13.7203  13.7216

     highest occupied, lowest unoccupied level (ev):     5.9468    7.1477

!    total energy              =     -91.34530883 Ry
     estimated scf accuracy    <          2.5E-12 Ry

     The total energy is the sum of the following terms:
     one-electron contribution =      20.70972437 Ry
     hartree contribution      =       4.39861353 Ry
     xc contribution           =     -49.24992842 Ry
     ewald contribution        =     -67.20371830 Ry

     convergence has been achieved in  11 iterations

     Forces acting on atoms (cartesian axes, Ry/au):

     atom    1 type  1   force =     0.00000001   -0.00000003    0.00000001
     atom    2 type  1   force =    -0.00000003   -0.00000003    0.00000000
     atom    3 type  1   force =     0.00000005   -0.00000001   -0.00000000
     atom    4 type  1   force =    -0.00000001    0.00000001   -0.00000002
     atom    5 type  1   force =    -0.00007048   -0.00007049   -0.00007052
     atom    6 type  1   force =     0.00007050    0.00007054   -0.00007054
     atom    7 type  1   force =     0.00007050   -0.00007052    0.00007055
     atom    8 type  1   force =    -0.00007053    0.00007054    0.00007052
     The non-local contrib.  to forces
     atom    1 type  1   force =    -0.00000002   -0.00000008    0.00000001
     atom    2 type  1   force =    -0.00000003   -0.00000000    0.00000003
     atom    3 type  1   force =     0.00000001   -0.00000005    0.00000007
     atom    4 type  1   force =    -0.00000002   -0.00000004    0.00000013
     atom    5 type  1   force =    -0.00045882   -0.00045877   -0.00045886
     atom    6 type  1   force =     0.00045882    0.00045883   -0.00045894
     atom    7 type  1   force =     0.00045889   -0.00045871    0.00045883
     atom    8 type  1   force =    -0.00045884    0.00045890    0.00045879
     The ionic contribution  to forces
     atom    1 type  1   force =    -0.00000000   -0.00000000   -0.00000000
     atom    2 type  1   force =     0.00000000    0.00000000   -0.00000000
     atom    3 type  1   force =    -0.00000000    0.00000000   -0.00000000
     atom    4 type  1   force =     0.00000000   -0.00000000   -0.00000000
     atom    5 type  1   force =    -0.00000000   -0.00000000   -0.00000000
     atom    6 type  1   force =     0.00000000    0.00000000    0.00000000
     atom    7 type  1   force =     0.00000000    0.00000000    0.00000000
     atom    8 type  1   force =     0.00000000    0.00000000    0.00000000
     The local contribution  to forces
     atom    1 type  1   force =     0.00000029    0.00000007    0.00000032
     atom    2 type  1   force =    -0.00000027    0.00000013    0.00000022
     atom    3 type  1   force =     0.00000031    0.00000026   -0.00000041
     atom    4 type  1   force =    -0.00000019    0.00000006   -0.00000050
     atom    5 type  1   force =    -0.00028297   -0.00028361   -0.00028327
     atom    6 type  1   force =     0.00028298    0.00028343   -0.00028316
     atom    7 type  1   force =     0.00028286   -0.00028369    0.00028346
     atom    8 type  1   force =    -0.00028303    0.00028327    0.00028345
     The core correction contribution to forces
     atom    1 type  1   force =     0.00000000    0.00000001   -0.00000000
     atom    2 type  1   force =     0.00000000   -0.00000000   -0.00000000
     atom    3 type  1   force =     0.00000000    0.00000001   -0.00000001
     atom    4 type  1   force =    -0.00000000    0.00000001   -0.00000002
     atom    5 type  1   force =     0.00067148    0.00067148    0.00067149
     atom    6 type  1   force =    -0.00067149   -0.00067149    0.00067150
     atom    7 type  1   force =    -0.00067149    0.00067147   -0.00067148
     atom    8 type  1   force =     0.00067149   -0.00067149   -0.00067148
     The Hubbard contrib.    to forces
     atom    1 type  1   force =     0.00000000    0.00000000    0.00000000
     atom    2 type  1   force =     0.00000000    0.00000000    0.00000000
     atom    3 type  1   force =     0.00000000    0.00000000    0.00000000
     atom    4 type  1   force =     0.00000000    0.00000000    0.00000000
     atom    5 type  1   force =     0.00000000    0.00000000    0.00000000
     atom    6 type  1   force =     0.00000000    0.00000000    0.00000000
     atom    7 type  1   force =     0.00000000    0.00000000    0.00000000
     atom    8 type  1   force =     0.00000000    0.00000000    0.00000000
     The SCF correction term to forces
     atom    1 type  1   force =    -0.00000027   -0.00000002   -0.00000031
     atom    2 type  1   force =     0.00000027   -0.00000016   -0.00000023
     atom    3 type  1   force =    -0.00000027   -0.00000023    0.00000037
     atom    4 type  1   force =     0.00000020   -0.00000002    0.00000039
     atom    5 type  1   force =    -0.00000018    0.00000041    0.00000014
     atom    6 type  1   force =     0.00000018   -0.00000023    0.00000007
     atom    7 type  1   force =     0.00000024    0.00000041   -0.00000024
     atom    8 type  1   force =    -0.00000015   -0.00000014   -0.00000023

     Total force =     0.000244     Total SCF correction =     0.000001

     Writing all to output data dir ./output/si.save/

     init_run     :      3.11s CPU      0.87s WALL (       1 calls)
     electrons    :    231.62s CPU     59.85s WALL (       1 calls)
     forces       :      1.74s CPU      0.45s WALL (       1 calls)

     Called by init_run:
     wfcinit      :      2.58s CPU      0.67s WALL (       1 calls)
     potinit      :      0.01s CPU      0.00s WALL (       1 calls)
     hinit0       :      0.42s CPU      0.17s WALL (       1 calls)

     Called by electrons:
     c_bands      :    220.81s CPU     57.07s WALL (      12 calls)
     sum_band     :      9.99s CPU      2.56s WALL (      12 calls)
     v_of_rho     :      0.12s CPU      0.03s WALL (      12 calls)
     newd         :      0.74s CPU      0.19s WALL (      12 calls)
     mix_rho      :      0.04s CPU      0.01s WALL (      12 calls)

     Called by c_bands:
     init_us_2    :      1.47s CPU      0.38s WALL (     832 calls)
     init_us_2:cp :      1.46s CPU      0.38s WALL (     832 calls)
     ccgdiagg     :    199.14s CPU     51.50s WALL (     384 calls)
     wfcrot       :     23.08s CPU      5.93s WALL (     352 calls)

     Called by *cgdiagg:
     h_psi        :    112.40s CPU     29.05s WALL (   43790 calls)
     s_psi        :     65.43s CPU     16.75s WALL (   87228 calls)

     Called by h_psi:
     h_psi:calbec :     30.43s CPU      7.81s WALL (   43790 calls)
     vloc_psi     :     39.33s CPU     10.09s WALL (   43790 calls)
     add_vuspsi   :     41.36s CPU     10.65s WALL (   43790 calls)
     hs_1psi      :    129.37s CPU     33.46s WALL (   43438 calls)
     s_1psi       :     57.66s CPU     14.89s WALL (   43438 calls)

     General routines
     calbec       :     62.73s CPU     15.84s WALL (   87740 calls)
     fft          :      0.35s CPU      0.09s WALL (     144 calls)
     ffts         :      0.00s CPU      0.00s WALL (      12 calls)
     fftw         :     36.27s CPU      8.55s WALL (  121692 calls)

     Parallel routines

     PWSCF        :   3m56.74s CPU   1m 1.30s WALL


   This run was terminated on:  13:48:38   2Jun2023            

=------------------------------------------------------------------------------=
   JOB DONE.
=------------------------------------------------------------------------------=
